LAMMPS Description

129 atoms
128 bonds
127 angles
126 dihedrals
0 impropers

131 atom types
128 bond types
127 angle types
126 dihedral types
0 improper types

1 extra bond per atom

0 271.320000 xlo xhi
0 271.320000 ylo yhi
0 271.320000 zlo zhi

Masses

1 1.0
2 1.0
3 1.0
4 1.0
5 1.0
6 1.0
7 1.0
8 1.0
9 1.0
10 1.0
11 1.0
12 1.0
13 1.0
14 1.0
15 1.0
16 1.0
17 1.0
18 1.0
19 1.0
20 1.0
21 1.0
22 1.0
23 1.0
24 1.0
25 1.0
26 1.0
27 1.0
28 1.0
29 1.0
30 1.0
31 1.0
32 1.0
33 1.0
34 1.0
35 1.0
36 1.0
37 1.0
38 1.0
39 1.0
40 1.0
41 1.0
42 1.0
43 1.0
44 1.0
45 1.0
46 1.0
47 1.0
48 1.0
49 1.0
50 1.0
51 1.0
52 1.0
53 1.0
54 1.0
55 1.0
56 1.0
57 1.0
58 1.0
59 1.0
60 1.0
61 1.0
62 1.0
63 1.0
64 1.0
65 1.0
66 1.0
67 1.0
68 1.0
69 1.0
70 1.0
71 1.0
72 1.0
73 1.0
74 1.0
75 1.0
76 1.0
77 1.0
78 1.0
79 1.0
80 1.0
81 1.0
82 1.0
83 1.0
84 1.0
85 1.0
86 1.0
87 1.0
88 1.0
89 1.0
90 1.0
91 1.0
92 1.0
93 1.0
94 1.0
95 1.0
96 1.0
97 1.0
98 1.0
99 1.0
100 1.0
101 1.0
102 1.0
103 1.0
104 1.0
105 1.0
106 1.0
107 1.0
108 1.0
109 1.0
110 1.0
111 1.0
112 1.0
113 1.0
114 1.0
115 1.0
116 1.0
117 1.0
118 1.0
119 1.0
120 1.0
121 1.0
122 1.0
123 1.0
124 1.0
125 1.0
126 1.0
127 1.0
128 1.0
129 1.0
130 1.0
131 1.0


Atoms

1 3 3 0 4.81369473684 8.65989657895 10.2564207895
2 4 4 0 4.81371868421 9.53911447368 9.79120236842
3 5 5 0 3.88643578947 9.89772789474 9.75856842105
4 6 6 0 3.46590894737 10.4427410526 9.04077105263
5 7 7 0 3.10815157895 11.3397897368 9.27369447368
6 8 8 0 2.17264394737 11.0398757895 9.11715552632
7 9 9 0 2.26360184211 10.1271634211 9.50203289474
8 10 10 0 2.61151657895 10.4459584211 10.3779034211
9 11 11 0 1.89942184211 11.1395068421 10.417745
10 12 12 0 1.21585473684 10.4284889474 10.2878739474
11 13 13 0 1.64749263158 9.85510710526 10.9744281579
12 14 14 0 1.77544210526 10.5552084211 11.6697428947
13 15 15 0 0.814416315789 10.7617889474 11.5176702632
14 16 16 0 0.539240526316 9.81057210526 11.6138784211
15 17 17 0 1.05761578947 9.85777842105 12.4616186842
16 18 18 0 0.581488684211 10.6054455263 12.9133276316
17 19 19 0 1.20330026316 11.3600678947 12.7291576316
18 20 20 0 0.689059210526 11.9907426316 12.1569784211
19 21 21 0 0.512701315789 12.714225 12.8166805263
20 22 22 0 0.873778421053 12.2214826316 13.6019489474
21 23 23 0 1.00197657895 12.9103957895 14.3083847368
22 24 24 0 0.749862105263 13.5579918421 13.5964892105
23 25 25 0 1.46546552632 13.4084607895 12.9216368421
24 26 26 0 1.17299473684 13.2955228947 11.9779352632
25 27 27 0 1.43685710526 12.4661642105 11.4968173684
26 28 28 0 2.05046263158 13.0377418421 10.9611534211
27 29 29 0 2.53737236842 13.3336307895 11.7765968421
28 30 30 0 2.77511315789 12.3725142105 11.8725286842
29 31 31 0 3.02269236842 12.1307039474 10.9401363158
30 32 32 0 3.56438789474 12.9648081579 10.9395781579
31 33 33 0 4.06115815789 12.7631513158 11.7772152632
32 34 34 0 4.24086921053 11.8364147368 11.4640286842
33 35 35 0 4.572635 12.1248010526 10.5720076316
34 36 36 0 5.23914236842 12.7563710526 10.9546428947
35 37 37 0 5.44380289474 12.1493834211 11.7157007895
36 38 38 0 5.57377052632 11.2924413158 11.2273863158
37 39 39 0 5.34142605263 11.3891223684 10.2658965789
38 40 40 0 4.58928789474 10.7476957895 10.3707681579
39 41 41 0 5.27905657895 10.0700610526 10.605365
40 42 42 0 5.04400131579 9.51784394737 11.3988365789
41 43 43 0 5.95381605263 9.120125 11.4605502632
42 44 44 0 6.38476473684 9.99929105263 11.6321355263
43 45 45 0 6.94878526316 10.1338236842 12.4398136842
44 46 46 0 7.50317868421 10.8942626316 12.7621089474
45 47 47 0 8.129105 10.9991205263 13.5284092105
46 48 48 0 8.09717842105 11.8484447368 14.0455723684
47 49 49 0 8.89731289474 12.1140294737 14.5736826316
48 50 50 0 8.54421710526 11.8626247368 15.4670084211
49 51 51 0 8.57922631579 10.8956778947 15.24128
50 52 52 0 7.60995473684 10.8554628947 15.0209197368
51 53 53 0 7.29713947368 10.5516236842 14.1269223684
52 54 54 0 6.48628157895 10.7860957895 13.6006681579
53 55 55 0 5.90423368421 10.0830089474 13.2048660526
54 56 56 0 5.25865552632 9.92879 12.4642268421
55 57 57 0 4.66884315789 10.4753602632 11.8791102632
56 58 58 0 4.50260289474 11.1340144737 12.6061565789
57 59 59 0 5.40636657895 11.0709357895 13.0167078947
58 60 60 0 5.15287342105 10.8637736842 13.9558392105
59 61 61 0 5.88410868421 10.9622123684 14.6231921053
60 62 62 0 6.27553421053 10.2635944737 15.2129784211
61 63 63 0 6.49369973684 10.8255394737 16.0045860526
62 64 64 0 5.51671894737 10.8412328947 16.1913497368
63 65 65 0 4.88660894737 10.3568805263 15.5931052632
64 66 66 0 5.29848789474 9.48049710526 15.3647273684
65 67 67 0 6.02528184211 8.86890631579 15.6591376316
66 68 68 0 6.77611 8.61508973684 15.0604165789
67 69 69 0 7.35567210526 8.27375184211 15.7932747368
68 70 70 0 8.08204342105 8.94288263158 15.6828371053
69 71 71 0 7.72750105263 9.80651394737 16.0180739474
70 72 72 0 7.87163736842 9.87891131579 16.9998042105
71 73 73 0 7.32763447368 10.6548594737 17.3010481579
72 74 74 0 6.58459578947 10.1089534211 16.9373736842
73 75 75 0 5.61687736842 10.1328236842 17.1447826316
74 76 76 0 5.10555157895 9.54988894737 16.5224365789
75 77 77 0 4.24394394737 10.0422184211 16.5870644737
76 78 78 0 3.89169078947 9.61276078947 15.7620036842
77 79 79 0 4.14101473684 8.72046526316 16.1203457895
78 80 80 0 4.48364026316 8.39070947368 15.246655
79 81 81 0 5.38615394737 8.13831526316 14.9193092105
80 82 82 0 5.69222289474 8.85529447368 14.3024539474
81 83 83 0 5.79433447368 8.16284447368 13.5962989474
82 84 84 0 4.80741184211 8.03888394737 13.5908347368
83 85 85 0 4.72956078947 8.96449052632 13.2389760526
84 86 86 0 5.21866868421 8.71001026316 12.4108847368
85 87 87 0 4.59510421053 8.0 12.1016655263
86 88 88 0 4.06392078947 8.11840921053 11.2689121053
87 89 89 0 3.23603921053 8.19021 11.812955
88 90 90 0 3.20532105263 9.09878947368 12.2164189474
89 91 91 0 2.56781263158 8.84252447368 12.93467
90 92 92 0 3.25125289474 8.85702342105 13.6574123684
91 93 93 0 3.60575605263 9.73368289474 13.3478965789
92 94 94 0 2.71121421053 10.1640876316 13.2993739474
93 95 95 0 2.43624763158 9.77049421053 14.1707460526
94 96 96 0 3.26246710526 10.1485442105 14.5754026316
95 97 97 0 3.21205210526 11.0061997368 14.0734939474
96 98 98 0 2.30353052632 11.1456336842 14.4544289474
97 99 99 0 2.72381526316 11.1240178947 15.3560244737
98 100 100 0 3.45808315789 11.7451710526 15.1096610526
99 101 101 0 2.845745 12.4218326316 14.7138115789
100 102 102 0 2.22273368421 12.4098207895 15.4883089474
101 103 103 0 2.88291447368 12.5231281579 16.2220315789
102 104 104 0 2.96575894737 13.5086942105 16.1142705263
103 105 105 0 3.45702921053 13.9187889474 15.3525407895
104 106 106 0 2.91064105263 13.5766163158 14.5948636842
105 107 107 0 3.43813763158 13.3990286842 13.7705381579
106 108 108 0 4.12451947368 14.0437118421 14.0912755263
107 109 109 0 4.50688342105 13.206035 14.4678094737
108 110 110 0 4.80274052632 13.0717005263 13.5276292105
109 111 111 0 5.53324289474 13.6955021053 13.2690571053
110 112 112 0 5.32513736842 13.6042155263 12.3005673684
111 113 113 0 4.34523263158 13.7683921053 12.3463815789
112 114 114 0 4.53179026316 14.5895026316 12.8764621053
113 115 115 0 5.21395868421 14.9531913158 12.2499728947
114 116 116 0 4.87850789474 14.6197573684 11.3749018421
115 117 117 0 3.91286631579 14.4056631579 11.4694089474
116 118 118 0 3.52999157895 15.0053763158 12.1634494737
117 119 119 0 3.04262657895 15.7592252632 11.7365015789
118 120 120 0 3.09947447368 15.4878363158 10.7825405263
119 121 121 0 2.30565473684 15.1484797368 10.2896544737
120 122 122 0 2.39798157895 14.1990223684 10.5712257895
121 123 123 0 1.57995157895 13.911545 10.0849602632
122 124 124 0 2.17304052632 13.9169105263 9.28654236842
123 125 125 0 2.52020921053 13.0394760526 9.60122657895
124 126 126 0 1.64326473684 12.5862778947 9.49170763158
125 127 127 0 1.39198684211 13.069895 8.65940236842
126 128 128 0 1.20750605263 12.3480586842 8.0
127 129 129 0 0.940208684211 11.6513086842 8.65752289474
128 130 130 0 0.155228157895 11.0423321053 8.69940684211
129 131 131 0 0.0 11.1794815789 9.67233736842

Bonds

1 1 1 2
2 2 2 3
3 3 3 4
4 4 4 5
5 5 5 6
6 6 6 7
7 7 7 8
8 8 8 9
9 9 9 10
10 10 10 11
11 11 11 12
12 12 12 13
13 13 13 14
14 14 14 15
15 15 15 16
16 16 16 17
17 17 17 18
18 18 18 19
19 19 19 20
20 20 20 21
21 21 21 22
22 22 22 23
23 23 23 24
24 24 24 25
25 25 25 26
26 26 26 27
27 27 27 28
28 28 28 29
29 29 29 30
30 30 30 31
31 31 31 32
32 32 32 33
33 33 33 34
34 34 34 35
35 35 35 36
36 36 36 37
37 37 37 38
38 38 38 39
39 39 39 40
40 40 40 41
41 41 41 42
42 42 42 43
43 43 43 44
44 44 44 45
45 45 45 46
46 46 46 47
47 47 47 48
48 48 48 49
49 49 49 50
50 50 50 51
51 51 51 52
52 52 52 53
53 53 53 54
54 54 54 55
55 55 55 56
56 56 56 57
57 57 57 58
58 58 58 59
59 59 59 60
60 60 60 61
61 61 61 62
62 62 62 63
63 63 63 64
64 64 64 65
65 65 65 66
66 66 66 67
67 67 67 68
68 68 68 69
69 69 69 70
70 70 70 71
71 71 71 72
72 72 72 73
73 73 73 74
74 74 74 75
75 75 75 76
76 76 76 77
77 77 77 78
78 78 78 79
79 79 79 80
80 80 80 81
81 81 81 82
82 82 82 83
83 83 83 84
84 84 84 85
85 85 85 86
86 86 86 87
87 87 87 88
88 88 88 89
89 89 89 90
90 90 90 91
91 91 91 92
92 92 92 93
93 93 93 94
94 94 94 95
95 95 95 96
96 96 96 97
97 97 97 98
98 98 98 99
99 99 99 100
100 100 100 101
101 101 101 102
102 102 102 103
103 103 103 104
104 104 104 105
105 105 105 106
106 106 106 107
107 107 107 108
108 108 108 109
109 109 109 110
110 110 110 111
111 111 111 112
112 112 112 113
113 113 113 114
114 114 114 115
115 115 115 116
116 116 116 117
117 117 117 118
118 118 118 119
119 119 119 120
120 120 120 121
121 121 121 122
122 122 122 123
123 123 123 124
124 124 124 125
125 125 125 126
126 126 126 127
127 127 127 128
128 128 128 129


Angles

1 1 1 2 3
2 2 2 3 4
3 3 3 4 5
4 4 4 5 6
5 5 5 6 7
6 6 6 7 8
7 7 7 8 9
8 8 8 9 10
9 9 9 10 11
10 10 10 11 12
11 11 11 12 13
12 12 12 13 14
13 13 13 14 15
14 14 14 15 16
15 15 15 16 17
16 16 16 17 18
17 17 17 18 19
18 18 18 19 20
19 19 19 20 21
20 20 20 21 22
21 21 21 22 23
22 22 22 23 24
23 23 23 24 25
24 24 24 25 26
25 25 25 26 27
26 26 26 27 28
27 27 27 28 29
28 28 28 29 30
29 29 29 30 31
30 30 30 31 32
31 31 31 32 33
32 32 32 33 34
33 33 33 34 35
34 34 34 35 36
35 35 35 36 37
36 36 36 37 38
37 37 37 38 39
38 38 38 39 40
39 39 39 40 41
40 40 40 41 42
41 41 41 42 43
42 42 42 43 44
43 43 43 44 45
44 44 44 45 46
45 45 45 46 47
46 46 46 47 48
47 47 47 48 49
48 48 48 49 50
49 49 49 50 51
50 50 50 51 52
51 51 51 52 53
52 52 52 53 54
53 53 53 54 55
54 54 54 55 56
55 55 55 56 57
56 56 56 57 58
57 57 57 58 59
58 58 58 59 60
59 59 59 60 61
60 60 60 61 62
61 61 61 62 63
62 62 62 63 64
63 63 63 64 65
64 64 64 65 66
65 65 65 66 67
66 66 66 67 68
67 67 67 68 69
68 68 68 69 70
69 69 69 70 71
70 70 70 71 72
71 71 71 72 73
72 72 72 73 74
73 73 73 74 75
74 74 74 75 76
75 75 75 76 77
76 76 76 77 78
77 77 77 78 79
78 78 78 79 80
79 79 79 80 81
80 80 80 81 82
81 81 81 82 83
82 82 82 83 84
83 83 83 84 85
84 84 84 85 86
85 85 85 86 87
86 86 86 87 88
87 87 87 88 89
88 88 88 89 90
89 89 89 90 91
90 90 90 91 92
91 91 91 92 93
92 92 92 93 94
93 93 93 94 95
94 94 94 95 96
95 95 95 96 97
96 96 96 97 98
97 97 97 98 99
98 98 98 99 100
99 99 99 100 101
100 100 100 101 102
101 101 101 102 103
102 102 102 103 104
103 103 103 104 105
104 104 104 105 106
105 105 105 106 107
106 106 106 107 108
107 107 107 108 109
108 108 108 109 110
109 109 109 110 111
110 110 110 111 112
111 111 111 112 113
112 112 112 113 114
113 113 113 114 115
114 114 114 115 116
115 115 115 116 117
116 116 116 117 118
117 117 117 118 119
118 118 118 119 120
119 119 119 120 121
120 120 120 121 122
121 121 121 122 123
122 122 122 123 124
123 123 123 124 125
124 124 124 125 126
125 125 125 126 127
126 126 126 127 128
127 127 127 128 129


Dihedrals

1 1 1 2 3 4
2 2 2 3 4 5
3 3 3 4 5 6
4 4 4 5 6 7
5 5 5 6 7 8
6 6 6 7 8 9
7 7 7 8 9 10
8 8 8 9 10 11
9 9 9 10 11 12
10 10 10 11 12 13
11 11 11 12 13 14
12 12 12 13 14 15
13 13 13 14 15 16
14 14 14 15 16 17
15 15 15 16 17 18
16 16 16 17 18 19
17 17 17 18 19 20
18 18 18 19 20 21
19 19 19 20 21 22
20 20 20 21 22 23
21 21 21 22 23 24
22 22 22 23 24 25
23 23 23 24 25 26
24 24 24 25 26 27
25 25 25 26 27 28
26 26 26 27 28 29
27 27 27 28 29 30
28 28 28 29 30 31
29 29 29 30 31 32
30 30 30 31 32 33
31 31 31 32 33 34
32 32 32 33 34 35
33 33 33 34 35 36
34 34 34 35 36 37
35 35 35 36 37 38
36 36 36 37 38 39
37 37 37 38 39 40
38 38 38 39 40 41
39 39 39 40 41 42
40 40 40 41 42 43
41 41 41 42 43 44
42 42 42 43 44 45
43 43 43 44 45 46
44 44 44 45 46 47
45 45 45 46 47 48
46 46 46 47 48 49
47 47 47 48 49 50
48 48 48 49 50 51
49 49 49 50 51 52
50 50 50 51 52 53
51 51 51 52 53 54
52 52 52 53 54 55
53 53 53 54 55 56
54 54 54 55 56 57
55 55 55 56 57 58
56 56 56 57 58 59
57 57 57 58 59 60
58 58 58 59 60 61
59 59 59 60 61 62
60 60 60 61 62 63
61 61 61 62 63 64
62 62 62 63 64 65
63 63 63 64 65 66
64 64 64 65 66 67
65 65 65 66 67 68
66 66 66 67 68 69
67 67 67 68 69 70
68 68 68 69 70 71
69 69 69 70 71 72
70 70 70 71 72 73
71 71 71 72 73 74
72 72 72 73 74 75
73 73 73 74 75 76
74 74 74 75 76 77
75 75 75 76 77 78
76 76 76 77 78 79
77 77 77 78 79 80
78 78 78 79 80 81
79 79 79 80 81 82
80 80 80 81 82 83
81 81 81 82 83 84
82 82 82 83 84 85
83 83 83 84 85 86
84 84 84 85 86 87
85 85 85 86 87 88
86 86 86 87 88 89
87 87 87 88 89 90
88 88 88 89 90 91
89 89 89 90 91 92
90 90 90 91 92 93
91 91 91 92 93 94
92 92 92 93 94 95
93 93 93 94 95 96
94 94 94 95 96 97
95 95 95 96 97 98
96 96 96 97 98 99
97 97 97 98 99 100
98 98 98 99 100 101
99 99 99 100 101 102
100 100 100 101 102 103
101 101 101 102 103 104
102 102 102 103 104 105
103 103 103 104 105 106
104 104 104 105 106 107
105 105 105 106 107 108
106 106 106 107 108 109
107 107 107 108 109 110
108 108 108 109 110 111
109 109 109 110 111 112
110 110 110 111 112 113
111 111 111 112 113 114
112 112 112 113 114 115
113 113 113 114 115 116
114 114 114 115 116 117
115 115 115 116 117 118
116 116 116 117 118 119
117 117 117 118 119 120
118 118 118 119 120 121
119 119 119 120 121 122
120 120 120 121 122 123
121 121 121 122 123 124
122 122 122 123 124 125
123 123 123 124 125 126
124 124 124 125 126 127
125 125 125 126 127 128
126 126 126 127 128 129
